<?xml version="1.0" encoding="UTF-8"?>

<!-- generated on 06/28/19 06:59:08 by Eclipse SUMO GUI Version 1.2.0
<configuration xmlns:xsi="http://www.w3.org/2001/XMLSchema-instance" xsi:noNamespaceSchemaLocation="http://sumo.dlr.de/xsd/sumoConfiguration.xsd">

    <input>
        <net-file value="data/network.net.xml"/>
        <route-files value="data/route.rou.xml"/>
    </input>

    <output>
        <tripinfo-output value="tripinfo.xml"/>
    </output>

    <time>
        <begin value="0"/>
    </time>

    <report>
        <verbose value="true"/>
        <no-step-log value="true"/>
    </report>

    <traci_server>
        <remote-port value="50981"/>
    </traci_server>

</configuration>
-->

<tripinfos xmlns:xsi="http://www.w3.org/2001/XMLSchema-instance" xsi:noNamespaceSchemaLocation="http://sumo.dlr.de/xsd/tripinfo_file.xsd">
    <tripinfo id="route1_0" depart="0.00" departLane="1-to1_0" departPos="5.10" departSpeed="0.00" departDelay="0.00" arrival="26.00" arrivalLane="1to1+_0" arrivalPos="89.60" arrivalSpeed="15.09" duration="26.00" routeLength="194.90" waitingTime="0.00" waitingCount="0" stopTime="0.00" timeLoss="14.15" rerouteNo="0" devices="tripinfo_route1_0" vType="default_type" speedFactor="1.06" vaporized=""/>
    <tripinfo id="route2_4" depart="3.00" departLane="1+to1_0" departPos="5.10" departSpeed="0.00" departDelay="0.00" arrival="29.00" arrivalLane="1to1-_0" arrivalPos="89.60" arrivalSpeed="15.14" duration="26.00" routeLength="194.90" waitingTime="0.00" waitingCount="0" stopTime="0.00" timeLoss="13.72" rerouteNo="0" devices="tripinfo_route2_4" vType="default_type" speedFactor="1.03" vaporized=""/>
    <tripinfo id="route2_5" depart="8.00" departLane="1+to1_0" departPos="5.10" departSpeed="0.00" departDelay="3.00" arrival="34.00" arrivalLane="1to1-_0" arrivalPos="89.60" arrivalSpeed="15.82" duration="26.00" routeLength="194.90" waitingTime="0.00" waitingCount="0" stopTime="0.00" timeLoss="13.51" rerouteNo="0" devices="tripinfo_route2_5" vType="default_type" speedFactor="0.83" vaporized=""/>
    <tripinfo id="route9_1" depart="0.00" departLane="3-to3_0" departPos="5.10" departSpeed="0.00" departDelay="0.00" arrival="63.00" arrivalLane="3to4_0" arrivalPos="89.60" arrivalSpeed="11.04" duration="63.00" routeLength="183.13" waitingTime="26.00" waitingCount="1" stopTime="0.00" timeLoss="50.76" rerouteNo="0" devices="tripinfo_route9_1" vType="default_type" speedFactor="0.94" vaporized=""/>
    <tripinfo id="route12_2" depart="0.00" departLane="4to3_0" departPos="5.10" departSpeed="0.00" departDelay="0.00" arrival="63.00" arrivalLane="1to0_0" arrivalPos="89.60" arrivalSpeed="11.50" duration="63.00" routeLength="394.90" waitingTime="9.00" waitingCount="1" stopTime="0.00" timeLoss="39.12" rerouteNo="0" devices="tripinfo_route12_2" vType="default_type" speedFactor="1.01" vaporized=""/>
    <tripinfo id="route9_7" depart="7.00" departLane="3-to3_0" departPos="5.10" departSpeed="0.00" departDelay="0.00" arrival="65.00" arrivalLane="3to4_0" arrivalPos="89.60" arrivalSpeed="11.64" duration="58.00" routeLength="183.13" waitingTime="21.00" waitingCount="1" stopTime="0.00" timeLoss="45.51" rerouteNo="0" devices="tripinfo_route9_7" vType="default_type" speedFactor="0.89" vaporized=""/>
    <tripinfo id="route9_9" depart="12.00" departLane="3-to3_0" departPos="5.10" departSpeed="0.00" departDelay="3.00" arrival="66.00" arrivalLane="3to4_0" arrivalPos="89.60" arrivalSpeed="11.58" duration="54.00" routeLength="183.13" waitingTime="18.00" waitingCount="1" stopTime="0.00" timeLoss="41.70" rerouteNo="0" devices="tripinfo_route9_9" vType="default_type" speedFactor="0.86" vaporized=""/>
    <tripinfo id="route9_10" depart="20.00" departLane="3-to3_0" departPos="5.10" departSpeed="0.00" departDelay="0.00" arrival="68.00" arrivalLane="3to4_0" arrivalPos="89.60" arrivalSpeed="11.87" duration="48.00" routeLength="183.13" waitingTime="12.00" waitingCount="1" stopTime="0.00" timeLoss="36.01" rerouteNo="0" devices="tripinfo_route9_10" vType="default_type" speedFactor="1.09" vaporized=""/>
    <tripinfo id="route6_3" depart="1.00" departLane="2+to2_0" departPos="5.10" departSpeed="0.00" departDelay="0.00" arrival="70.00" arrivalLane="1to0_0" arrivalPos="89.60" arrivalSpeed="15.31" duration="69.00" routeLength="283.13" waitingTime="25.00" waitingCount="1" stopTime="0.00" timeLoss="51.13" rerouteNo="0" devices="tripinfo_route6_3" vType="default_type" speedFactor="1.08" vaporized=""/>
    <tripinfo id="route1_30" depart="55.00" departLane="1-to1_0" departPos="5.10" departSpeed="0.00" departDelay="0.00" arrival="108.00" arrivalLane="1to1+_0" arrivalPos="89.60" arrivalSpeed="12.08" duration="53.00" routeLength="194.90" waitingTime="16.00" waitingCount="1" stopTime="0.00" timeLoss="40.87" rerouteNo="0" devices="tripinfo_route1_30" vType="default_type" speedFactor="1.18" vaporized=""/>
    <tripinfo id="route7_8" depart="9.00" departLane="2+to2_0" departPos="5.10" departSpeed="0.00" departDelay="0.00" arrival="109.00" arrivalLane="3to4_0" arrivalPos="89.60" arrivalSpeed="11.66" duration="100.00" routeLength="293.45" waitingTime="42.00" waitingCount="2" stopTime="0.00" timeLoss="81.15" rerouteNo="0" devices="tripinfo_route7_8" vType="default_type" speedFactor="0.94" vaporized=""/>
    <tripinfo id="route7_21" depart="38.00" departLane="2+to2_0" departPos="5.10" departSpeed="0.00" departDelay="0.00" arrival="109.00" arrivalLane="3to4_1" arrivalPos="89.60" arrivalSpeed="11.81" duration="71.00" routeLength="293.45" waitingTime="23.00" waitingCount="1" stopTime="0.00" timeLoss="51.69" rerouteNo="0" devices="tripinfo_route7_21" vType="default_type" speedFactor="1.01" vaporized=""/>
    <tripinfo id="route2_47" depart="87.00" departLane="1+to1_0" departPos="5.10" departSpeed="0.00" departDelay="0.00" arrival="112.00" arrivalLane="1to1-_0" arrivalPos="89.60" arrivalSpeed="15.29" duration="25.00" routeLength="194.90" waitingTime="0.00" waitingCount="0" stopTime="0.00" timeLoss="13.04" rerouteNo="0" devices="tripinfo_route2_47" vType="default_type" speedFactor="0.90" vaporized=""/>
    <tripinfo id="route0_19" depart="42.00" departLane="0to1_0" departPos="5.10" departSpeed="0.00" departDelay="5.00" arrival="116.00" arrivalLane="3to4_0" arrivalPos="89.60" arrivalSpeed="15.84" duration="74.00" routeLength="394.90" waitingTime="22.00" waitingCount="1" stopTime="0.00" timeLoss="49.54" rerouteNo="0" devices="tripinfo_route0_19" vType="default_type" speedFactor="1.16" vaporized=""/>
    <tripinfo id="route1_52" depart="91.00" departLane="1-to1_0" departPos="5.10" departSpeed="0.00" departDelay="0.00" arrival="117.00" arrivalLane="1to1+_0" arrivalPos="89.60" arrivalSpeed="15.51" duration="26.00" routeLength="194.90" waitingTime="0.00" waitingCount="0" stopTime="0.00" timeLoss="13.55" rerouteNo="0" devices="tripinfo_route1_52" vType="default_type" speedFactor="1.02" vaporized=""/>
    <tripinfo id="route0_27" depart="52.00" departLane="0to1_0" departPos="5.10" departSpeed="0.00" departDelay="6.00" arrival="118.00" arrivalLane="3to4_0" arrivalPos="89.60" arrivalSpeed="16.07" duration="66.00" routeLength="394.90" waitingTime="12.00" waitingCount="1" stopTime="0.00" timeLoss="41.46" rerouteNo="0" devices="tripinfo_route0_27" vType="default_type" speedFactor="0.95" vaporized=""/>
    <tripinfo id="route2_53" depart="92.00" departLane="1+to1_0" departPos="5.10" departSpeed="0.00" departDelay="1.00" arrival="118.00" arrivalLane="1to1-_0" arrivalPos="89.60" arrivalSpeed="15.13" duration="26.00" routeLength="194.90" waitingTime="0.00" waitingCount="0" stopTime="0.00" timeLoss="14.15" rerouteNo="0" devices="tripinfo_route2_53" vType="default_type" speedFactor="1.10" vaporized=""/>
    <tripinfo id="route10_22" depart="47.00" departLane="4to3_0" departPos="5.10" departSpeed="0.00" departDelay="9.00" arrival="129.00" arrivalLane="2to2+_0" arrivalPos="89.60" arrivalSpeed="12.28" duration="82.00" routeLength="283.13" waitingTime="31.00" waitingCount="1" stopTime="0.00" timeLoss="63.93" rerouteNo="0" devices="tripinfo_route10_22" vType="default_type" speedFactor="0.98" vaporized=""/>
    <tripinfo id="route4_11" depart="22.00" departLane="0to1_0" departPos="5.10" departSpeed="0.00" departDelay="0.00" arrival="137.00" arrivalLane="2to2+_1" arrivalPos="89.60" arrivalSpeed="11.56" duration="115.00" routeLength="293.46" waitingTime="52.00" waitingCount="3" stopTime="0.00" timeLoss="96.03" rerouteNo="0" devices="tripinfo_route4_11" vType="default_type" speedFactor="1.03" vaporized=""/>
    <tripinfo id="route10_25" depart="57.00" departLane="4to3_0" departPos="5.10" departSpeed="0.00" departDelay="16.00" arrival="152.00" arrivalLane="2to2+_0" arrivalPos="89.60" arrivalSpeed="10.73" duration="95.00" routeLength="283.13" waitingTime="31.00" waitingCount="3" stopTime="0.00" timeLoss="76.93" rerouteNo="0" devices="tripinfo_route10_25" vType="default_type" speedFactor="0.87" vaporized=""/>
    <tripinfo id="route9_45" depart="80.00" departLane="3-to3_0" departPos="5.10" departSpeed="0.00" departDelay="0.00" arrival="152.00" arrivalLane="3to4_0" arrivalPos="89.60" arrivalSpeed="11.37" duration="72.00" routeLength="183.13" waitingTime="35.00" waitingCount="1" stopTime="0.00" timeLoss="59.87" rerouteNo="0" devices="tripinfo_route9_45" vType="default_type" speedFactor="1.09" vaporized=""/>
    <tripinfo id="route11_6" depart="6.00" departLane="4to3_0" departPos="5.10" departSpeed="0.00" departDelay="0.00" arrival="153.00" arrivalLane="1to1+_0" arrivalPos="89.60" arrivalSpeed="10.50" duration="147.00" routeLength="383.13" waitingTime="82.00" waitingCount="2" stopTime="0.00" timeLoss="122.98" rerouteNo="0" devices="tripinfo_route11_6" vType="default_type" speedFactor="1.05" vaporized=""/>
    <tripinfo id="route8_24" depart="40.00" departLane="3-to3_0" departPos="5.10" departSpeed="0.00" departDelay="0.00" arrival="153.00" arrivalLane="1to0_0" arrivalPos="89.60" arrivalSpeed="11.56" duration="113.00" routeLength="393.45" waitingTime="48.00" waitingCount="2" stopTime="0.00" timeLoss="87.80" rerouteNo="0" devices="tripinfo_route8_24" vType="default_type" speedFactor="0.83" vaporized=""/>
    <tripinfo id="route8_29" depart="52.00" departLane="3-to3_0" departPos="5.10" departSpeed="0.00" departDelay="0.00" arrival="154.00" arrivalLane="1to0_1" arrivalPos="89.60" arrivalSpeed="12.73" duration="102.00" routeLength="393.45" waitingTime="37.00" waitingCount="2" stopTime="0.00" timeLoss="77.10" rerouteNo="0" devices="tripinfo_route8_29" vType="default_type" speedFactor="0.93" vaporized=""/>
    <tripinfo id="route9_55" depart="101.00" departLane="3-to3_0" departPos="5.10" departSpeed="0.00" departDelay="0.00" arrival="154.00" arrivalLane="3to4_0" arrivalPos="89.60" arrivalSpeed="11.06" duration="53.00" routeLength="183.13" waitingTime="17.00" waitingCount="1" stopTime="0.00" timeLoss="40.98" rerouteNo="0" devices="tripinfo_route9_55" vType="default_type" speedFactor="1.00" vaporized=""/>
    <tripinfo id="route11_12" depart="22.00" departLane="4to3_0" departPos="5.10" departSpeed="0.00" departDelay="0.00" arrival="155.00" arrivalLane="1to1+_0" arrivalPos="89.60" arrivalSpeed="11.33" duration="133.00" routeLength="383.13" waitingTime="68.00" waitingCount="2" stopTime="0.00" timeLoss="108.91" rerouteNo="0" devices="tripinfo_route11_12" vType="default_type" speedFactor="1.05" vaporized=""/>
    <tripinfo id="route12_13" depart="27.00" departLane="4to3_0" departPos="5.10" departSpeed="0.00" departDelay="3.00" arrival="156.00" arrivalLane="1to0_1" arrivalPos="89.60" arrivalSpeed="12.24" duration="129.00" routeLength="394.90" waitingTime="65.00" waitingCount="2" stopTime="0.00" timeLoss="105.17" rerouteNo="0" devices="tripinfo_route12_13" vType="default_type" speedFactor="1.12" vaporized=""/>
    <tripinfo id="route9_64" depart="111.00" departLane="3-to3_0" departPos="5.10" departSpeed="0.00" departDelay="0.00" arrival="156.00" arrivalLane="3to4_0" arrivalPos="89.60" arrivalSpeed="11.21" duration="45.00" routeLength="183.13" waitingTime="10.00" waitingCount="1" stopTime="0.00" timeLoss="32.99" rerouteNo="0" devices="tripinfo_route9_64" vType="default_type" speedFactor="0.94" vaporized=""/>
    <tripinfo id="route12_17" depart="32.00" departLane="4to3_0" departPos="5.10" departSpeed="0.00" departDelay="1.00" arrival="158.00" arrivalLane="1to0_0" arrivalPos="89.60" arrivalSpeed="12.84" duration="126.00" routeLength="394.90" waitingTime="60.00" waitingCount="2" stopTime="0.00" timeLoss="101.68" rerouteNo="0" devices="tripinfo_route12_17" vType="default_type" speedFactor="0.94" vaporized=""/>
    <tripinfo id="route9_67" depart="119.00" departLane="3-to3_0" departPos="5.10" departSpeed="0.00" departDelay="0.00" arrival="158.00" arrivalLane="3to4_0" arrivalPos="89.60" arrivalSpeed="11.92" duration="39.00" routeLength="183.13" waitingTime="3.00" waitingCount="1" stopTime="0.00" timeLoss="26.66" rerouteNo="0" devices="tripinfo_route9_67" vType="default_type" speedFactor="0.91" vaporized=""/>
    <tripinfo id="route11_18" depart="37.00" departLane="4to3_0" departPos="5.10" departSpeed="0.00" departDelay="5.00" arrival="159.00" arrivalLane="1to1+_0" arrivalPos="89.60" arrivalSpeed="11.97" duration="122.00" routeLength="383.13" waitingTime="55.00" waitingCount="2" stopTime="0.00" timeLoss="97.42" rerouteNo="0" devices="tripinfo_route11_18" vType="default_type" speedFactor="0.94" vaporized=""/>
    <tripinfo id="route12_20" depart="42.00" departLane="4to3_0" departPos="5.10" departSpeed="0.00" departDelay="5.00" arrival="159.00" arrivalLane="1to0_1" arrivalPos="89.60" arrivalSpeed="8.62" duration="117.00" routeLength="394.90" waitingTime="51.00" waitingCount="2" stopTime="0.00" timeLoss="92.84" rerouteNo="0" devices="tripinfo_route12_20" vType="default_type" speedFactor="1.02" vaporized=""/>
    <tripinfo id="route9_68" depart="124.00" departLane="3-to3_0" departPos="5.10" departSpeed="0.00" departDelay="1.00" arrival="160.00" arrivalLane="3to4_0" arrivalPos="89.60" arrivalSpeed="12.37" duration="36.00" routeLength="183.13" waitingTime="0.00" waitingCount="0" stopTime="0.00" timeLoss="23.72" rerouteNo="0" devices="tripinfo_route9_68" vType="default_type" speedFactor="1.04" vaporized=""/>
    <tripinfo id="route11_36" depart="67.00" departLane="4to3_0" departPos="5.10" departSpeed="0.00" departDelay="0.00" arrival="161.00" arrivalLane="1to1+_0" arrivalPos="89.60" arrivalSpeed="11.53" duration="94.00" routeLength="383.13" waitingTime="26.00" waitingCount="2" stopTime="0.00" timeLoss="70.23" rerouteNo="0" devices="tripinfo_route11_36" vType="default_type" speedFactor="0.97" vaporized=""/>
    <tripinfo id="route12_41" depart="77.00" departLane="4to3_0" departPos="5.10" departSpeed="0.00" departDelay="0.00" arrival="161.00" arrivalLane="1to0_1" arrivalPos="89.60" arrivalSpeed="13.27" duration="84.00" routeLength="394.90" waitingTime="19.00" waitingCount="2" stopTime="0.00" timeLoss="59.73" rerouteNo="0" devices="tripinfo_route12_41" vType="default_type" speedFactor="0.96" vaporized=""/>
    <tripinfo id="route6_34" depart="68.00" departLane="2+to2_0" departPos="5.10" departSpeed="0.00" departDelay="3.00" arrival="162.00" arrivalLane="1to0_1" arrivalPos="89.60" arrivalSpeed="13.44" duration="94.00" routeLength="283.13" waitingTime="48.00" waitingCount="1" stopTime="0.00" timeLoss="76.20" rerouteNo="0" devices="tripinfo_route6_34" vType="default_type" speedFactor="0.99" vaporized=""/>
    <tripinfo id="route11_32" depart="62.00" departLane="4to3_0" departPos="5.10" departSpeed="0.00" departDelay="0.00" arrival="163.00" arrivalLane="1to1+_0" arrivalPos="89.60" arrivalSpeed="12.38" duration="101.00" routeLength="383.13" waitingTime="26.00" waitingCount="3" stopTime="0.00" timeLoss="76.94" rerouteNo="0" devices="tripinfo_route11_32" vType="default_type" speedFactor="1.01" vaporized=""/>
    <tripinfo id="route9_74" depart="133.00" departLane="3-to3_0" departPos="5.10" departSpeed="0.00" departDelay="0.00" arrival="163.00" arrivalLane="3to4_0" arrivalPos="89.60" arrivalSpeed="12.04" duration="30.00" routeLength="183.13" waitingTime="0.00" waitingCount="0" stopTime="0.00" timeLoss="17.97" rerouteNo="0" devices="tripinfo_route9_74" vType="default_type" speedFactor="0.96" vaporized=""/>
    <tripinfo id="route6_35" depart="74.00" departLane="2+to2_0" departPos="5.10" departSpeed="0.00" departDelay="8.00" arrival="164.00" arrivalLane="1to0_1" arrivalPos="89.60" arrivalSpeed="14.33" duration="90.00" routeLength="283.13" waitingTime="44.00" waitingCount="1" stopTime="0.00" timeLoss="72.37" rerouteNo="0" devices="tripinfo_route6_35" vType="default_type" speedFactor="1.02" vaporized=""/>
    <tripinfo id="route11_23" depart="52.00" departLane="4to3_0" departPos="5.10" departSpeed="0.00" departDelay="13.00" arrival="167.00" arrivalLane="1to1+_0" arrivalPos="89.60" arrivalSpeed="11.83" duration="115.00" routeLength="383.13" waitingTime="35.00" waitingCount="3" stopTime="0.00" timeLoss="90.75" rerouteNo="0" devices="tripinfo_route11_23" vType="default_type" speedFactor="0.89" vaporized=""/>
    <tripinfo id="route6_70" depart="127.00" departLane="2+to2_0" departPos="5.10" departSpeed="0.00" departDelay="0.00" arrival="167.00" arrivalLane="1to0_1" arrivalPos="89.60" arrivalSpeed="14.82" duration="40.00" routeLength="283.13" waitingTime="0.00" waitingCount="0" stopTime="0.00" timeLoss="22.40" rerouteNo="0" devices="tripinfo_route6_70" vType="default_type" speedFactor="1.02" vaporized=""/>
    <tripinfo id="route6_43" depart="88.00" departLane="2+to2_0" departPos="5.10" departSpeed="0.00" departDelay="9.00" arrival="169.00" arrivalLane="1to0_0" arrivalPos="89.60" arrivalSpeed="12.78" duration="81.00" routeLength="283.13" waitingTime="31.00" waitingCount="1" stopTime="0.00" timeLoss="62.71" rerouteNo="0" devices="tripinfo_route6_43" vType="default_type" speedFactor="1.04" vaporized=""/>
    <tripinfo id="route6_73" depart="133.00" departLane="2+to2_0" departPos="5.10" departSpeed="0.00" departDelay="0.00" arrival="170.00" arrivalLane="1to0_0" arrivalPos="89.60" arrivalSpeed="12.76" duration="37.00" routeLength="283.13" waitingTime="0.00" waitingCount="0" stopTime="0.00" timeLoss="18.82" rerouteNo="0" devices="tripinfo_route6_73" vType="default_type" speedFactor="1.06" vaporized=""/>
    <tripinfo id="route5_71" depart="130.00" departLane="0to1_0" departPos="5.10" departSpeed="0.00" departDelay="0.00" arrival="181.00" arrivalLane="1to1+_1" arrivalPos="89.60" arrivalSpeed="11.10" duration="51.00" routeLength="193.46" waitingTime="11.00" waitingCount="1" stopTime="0.00" timeLoss="37.76" rerouteNo="0" devices="tripinfo_route5_71" vType="default_type" speedFactor="0.97" vaporized=""/>
    <tripinfo id="route1_88" depart="163.00" departLane="1-to1_0" departPos="5.10" departSpeed="0.00" departDelay="0.00" arrival="189.00" arrivalLane="1to1+_1" arrivalPos="89.60" arrivalSpeed="14.85" duration="26.00" routeLength="194.90" waitingTime="0.00" waitingCount="0" stopTime="0.00" timeLoss="13.82" rerouteNo="0" devices="tripinfo_route1_88" vType="default_type" speedFactor="1.01" vaporized=""/>
    <tripinfo id="route1_94" depart="168.00" departLane="1-to1_0" departPos="5.10" departSpeed="0.00" departDelay="1.00" arrival="197.00" arrivalLane="1to1+_1" arrivalPos="89.60" arrivalSpeed="13.89" duration="29.00" routeLength="194.90" waitingTime="0.00" waitingCount="0" stopTime="0.00" timeLoss="16.54" rerouteNo="0" devices="tripinfo_route1_94" vType="default_type" speedFactor="1.09" vaporized=""/>
    <tripinfo id="route7_33" depart="63.00" departLane="2+to2_0" departPos="5.10" departSpeed="0.00" departDelay="0.00" arrival="198.00" arrivalLane="3to4_0" arrivalPos="89.60" arrivalSpeed="11.37" duration="135.00" routeLength="293.45" waitingTime="78.00" waitingCount="2" stopTime="0.00" timeLoss="116.56" rerouteNo="0" devices="tripinfo_route7_33" vType="default_type" speedFactor="1.17" vaporized=""/>
    <tripinfo id="route7_38" depart="79.00" departLane="2+to2_0" departPos="5.10" departSpeed="0.00" departDelay="6.00" arrival="198.00" arrivalLane="3to4_1" arrivalPos="89.60" arrivalSpeed="11.52" duration="119.00" routeLength="293.45" waitingTime="62.00" waitingCount="2" stopTime="0.00" timeLoss="100.43" rerouteNo="0" devices="tripinfo_route7_38" vType="default_type" speedFactor="1.10" vaporized=""/>
    <tripinfo id="route2_77" depart="144.00" departLane="1+to1_0" departPos="5.10" departSpeed="0.00" departDelay="0.00" arrival="198.00" arrivalLane="1to1-_0" arrivalPos="89.60" arrivalSpeed="11.33" duration="54.00" routeLength="194.90" waitingTime="17.00" waitingCount="1" stopTime="0.00" timeLoss="42.01" rerouteNo="0" devices="tripinfo_route2_77" vType="default_type" speedFactor="0.98" vaporized=""/>
    <tripinfo id="route1_57" depart="106.00" departLane="1-to1_0" departPos="5.10" departSpeed="0.00" departDelay="0.00" arrival="199.00" arrivalLane="1to1+_0" arrivalPos="89.60" arrivalSpeed="11.51" duration="93.00" routeLength="194.90" waitingTime="56.00" waitingCount="1" stopTime="0.00" timeLoss="80.78" rerouteNo="0" devices="tripinfo_route1_57" vType="default_type" speedFactor="1.14" vaporized=""/>
    <tripinfo id="route2_79" depart="149.00" departLane="1+to1_0" departPos="5.10" departSpeed="0.00" departDelay="0.00" arrival="199.00" arrivalLane="1to1-_1" arrivalPos="89.60" arrivalSpeed="11.73" duration="50.00" routeLength="194.90" waitingTime="12.00" waitingCount="1" stopTime="0.00" timeLoss="37.99" rerouteNo="0" devices="tripinfo_route2_79" vType="default_type" speedFactor="1.09" vaporized=""/>
    <tripinfo id="route7_40" depart="84.00" departLane="2+to2_0" departPos="5.10" departSpeed="0.00" departDelay="8.00" arrival="200.00" arrivalLane="3to4_1" arrivalPos="89.60" arrivalSpeed="12.40" duration="116.00" routeLength="293.45" waitingTime="58.00" waitingCount="2" stopTime="0.00" timeLoss="97.08" rerouteNo="0" devices="tripinfo_route7_40" vType="default_type" speedFactor="1.03" vaporized=""/>
    <tripinfo id="route7_44" depart="94.00" departLane="2+to2_0" departPos="5.10" departSpeed="0.00" departDelay="15.00" arrival="200.00" arrivalLane="3to4_0" arrivalPos="89.60" arrivalSpeed="11.83" duration="106.00" routeLength="293.45" waitingTime="42.00" waitingCount="3" stopTime="0.00" timeLoss="87.32" rerouteNo="0" devices="tripinfo_route7_44" vType="default_type" speedFactor="1.04" vaporized=""/>
    <tripinfo id="route2_82" depart="154.00" departLane="1+to1_0" departPos="5.10" departSpeed="0.00" departDelay="2.00" arrival="200.00" arrivalLane="1to1-_0" arrivalPos="89.60" arrivalSpeed="11.73" duration="46.00" routeLength="194.90" waitingTime="10.00" waitingCount="1" stopTime="0.00" timeLoss="33.92" rerouteNo="0" devices="tripinfo_route2_82" vType="default_type" speedFactor="1.02" vaporized=""/>
    <tripinfo id="route7_46" depart="98.00" departLane="2+to2_0" departPos="5.10" departSpeed="0.00" departDelay="12.00" arrival="202.00" arrivalLane="3to4_1" arrivalPos="89.60" arrivalSpeed="12.17" duration="104.00" routeLength="293.45" waitingTime="42.00" waitingCount="2" stopTime="0.00" timeLoss="85.44" rerouteNo="0" devices="tripinfo_route7_46" vType="default_type" speedFactor="1.00" vaporized=""/>
    <tripinfo id="route7_62" depart="110.00" departLane="2+to2_0" departPos="5.10" departSpeed="0.00" departDelay="0.00" arrival="202.00" arrivalLane="3to4_0" arrivalPos="89.60" arrivalSpeed="11.67" duration="92.00" routeLength="293.45" waitingTime="28.00" waitingCount="2" stopTime="0.00" timeLoss="73.31" rerouteNo="0" devices="tripinfo_route7_62" vType="default_type" speedFactor="1.02" vaporized=""/>
    <tripinfo id="route10_54" depart="94.00" departLane="4to3_0" departPos="5.10" departSpeed="0.00" departDelay="3.00" arrival="203.00" arrivalLane="2to2+_0" arrivalPos="89.60" arrivalSpeed="11.53" duration="109.00" routeLength="283.13" waitingTime="43.00" waitingCount="2" stopTime="0.00" timeLoss="90.24" rerouteNo="0" devices="tripinfo_route10_54" vType="default_type" speedFactor="1.00" vaporized=""/>
    <tripinfo id="route7_63" depart="113.00" departLane="2+to2_0" departPos="5.10" departSpeed="0.00" departDelay="2.00" arrival="204.00" arrivalLane="3to4_1" arrivalPos="89.60" arrivalSpeed="12.68" duration="91.00" routeLength="293.45" waitingTime="28.00" waitingCount="2" stopTime="0.00" timeLoss="72.06" rerouteNo="0" devices="tripinfo_route7_63" vType="default_type" speedFactor="0.99" vaporized=""/>
    <tripinfo id="route7_65" depart="116.00" departLane="2+to2_0" departPos="5.10" departSpeed="0.00" departDelay="2.00" arrival="204.00" arrivalLane="3to4_0" arrivalPos="89.60" arrivalSpeed="12.44" duration="88.00" routeLength="293.45" waitingTime="20.00" waitingCount="2" stopTime="0.00" timeLoss="69.00" rerouteNo="0" devices="tripinfo_route7_65" vType="default_type" speedFactor="0.88" vaporized=""/>
    <tripinfo id="route0_28" depart="58.00" departLane="0to1_0" departPos="5.10" departSpeed="0.00" departDelay="9.00" arrival="206.00" arrivalLane="3to4_0" arrivalPos="89.60" arrivalSpeed="15.42" duration="148.00" routeLength="394.90" waitingTime="84.00" waitingCount="2" stopTime="0.00" timeLoss="124.30" rerouteNo="0" devices="tripinfo_route0_28" vType="default_type" speedFactor="1.13" vaporized=""/>
    <tripinfo id="route2_100" depart="180.00" departLane="1+to1_0" departPos="5.10" departSpeed="0.00" departDelay="0.00" arrival="206.00" arrivalLane="1to1-_0" arrivalPos="89.60" arrivalSpeed="15.48" duration="26.00" routeLength="194.90" waitingTime="0.00" waitingCount="0" stopTime="0.00" timeLoss="13.64" rerouteNo="0" devices="tripinfo_route2_100" vType="default_type" speedFactor="1.07" vaporized=""/>
    <tripinfo id="route10_59" depart="107.00" departLane="4to3_0" departPos="5.10" departSpeed="0.00" departDelay="0.00" arrival="208.00" arrivalLane="2to2+_0" arrivalPos="89.60" arrivalSpeed="11.71" duration="101.00" routeLength="283.13" waitingTime="55.00" waitingCount="1" stopTime="0.00" timeLoss="83.15" rerouteNo="0" devices="tripinfo_route10_59" vType="default_type" speedFactor="0.97" vaporized=""/>
    <tripinfo id="route0_58" depart="107.00" departLane="0to1_0" departPos="5.10" departSpeed="0.00" departDelay="0.00" arrival="209.00" arrivalLane="3to4_0" arrivalPos="89.60" arrivalSpeed="15.68" duration="102.00" routeLength="394.90" waitingTime="35.00" waitingCount="2" stopTime="0.00" timeLoss="77.47" rerouteNo="0" devices="tripinfo_route0_58" vType="default_type" speedFactor="1.02" vaporized=""/>
    <tripinfo id="route0_31" depart="63.00" departLane="0to1_0" departPos="5.10" departSpeed="0.00" departDelay="7.00" arrival="210.00" arrivalLane="3to4_0" arrivalPos="89.60" arrivalSpeed="15.94" duration="147.00" routeLength="394.90" waitingTime="77.00" waitingCount="3" stopTime="0.00" timeLoss="122.95" rerouteNo="0" devices="tripinfo_route0_31" vType="default_type" speedFactor="1.15" vaporized=""/>
    <tripinfo id="route10_66" depart="117.00" departLane="4to3_0" departPos="5.10" departSpeed="0.00" departDelay="2.00" arrival="211.00" arrivalLane="2to2+_0" arrivalPos="89.60" arrivalSpeed="11.73" duration="94.00" routeLength="283.13" waitingTime="46.00" waitingCount="1" stopTime="0.00" timeLoss="76.32" rerouteNo="0" devices="tripinfo_route10_66" vType="default_type" speedFactor="0.91" vaporized=""/>
    <tripinfo id="route0_75" depart="139.00" departLane="0to1_0" departPos="5.10" departSpeed="0.00" departDelay="0.00" arrival="212.00" arrivalLane="3to4_0" arrivalPos="89.60" arrivalSpeed="16.51" duration="73.00" routeLength="394.90" waitingTime="18.00" waitingCount="1" stopTime="0.00" timeLoss="48.48" rerouteNo="0" devices="tripinfo_route0_75" vType="default_type" speedFactor="0.98" vaporized=""/>
    <tripinfo id="route3_76" depart="144.00" departLane="0to1_0" departPos="5.10" departSpeed="0.00" departDelay="3.00" arrival="216.00" arrivalLane="3to3-_0" arrivalPos="89.60" arrivalSpeed="11.94" duration="72.00" routeLength="383.13" waitingTime="16.00" waitingCount="1" stopTime="0.00" timeLoss="48.45" rerouteNo="0" devices="tripinfo_route3_76" vType="default_type" speedFactor="1.03" vaporized=""/>
    <tripinfo id="route10_69" depart="123.00" departLane="4to3_0" departPos="5.10" departSpeed="0.00" departDelay="0.00" arrival="217.00" arrivalLane="2to2+_0" arrivalPos="89.60" arrivalSpeed="12.98" duration="94.00" routeLength="283.13" waitingTime="42.00" waitingCount="1" stopTime="0.00" timeLoss="75.66" rerouteNo="0" devices="tripinfo_route10_69" vType="default_type" speedFactor="1.02" vaporized=""/>
    <tripinfo id="route10_86" depart="161.00" departLane="4to3_0" departPos="5.10" departSpeed="0.00" departDelay="0.00" arrival="219.00" arrivalLane="2to2+_0" arrivalPos="89.60" arrivalSpeed="11.82" duration="58.00" routeLength="283.13" waitingTime="4.00" waitingCount="1" stopTime="0.00" timeLoss="39.82" rerouteNo="0" devices="tripinfo_route10_86" vType="default_type" speedFactor="1.00" vaporized=""/>
    <tripinfo id="route4_14" depart="27.00" departLane="0to1_0" departPos="5.10" departSpeed="0.00" departDelay="1.00" arrival="226.00" arrivalLane="2to2+_1" arrivalPos="89.60" arrivalSpeed="10.77" duration="199.00" routeLength="293.46" waitingTime="133.00" waitingCount="4" stopTime="0.00" timeLoss="180.35" rerouteNo="0" devices="tripinfo_route4_14" vType="default_type" speedFactor="0.99" vaporized=""/>
    <tripinfo id="route9_85" depart="157.00" departLane="3-to3_0" departPos="5.10" departSpeed="0.00" departDelay="0.00" arrival="242.00" arrivalLane="3to4_0" arrivalPos="89.60" arrivalSpeed="11.62" duration="85.00" routeLength="183.13" waitingTime="50.00" waitingCount="1" stopTime="0.00" timeLoss="72.83" rerouteNo="0" devices="tripinfo_route9_85" vType="default_type" speedFactor="0.98" vaporized=""/>
    <tripinfo id="route11_37" depart="72.00" departLane="4to3_0" departPos="5.10" departSpeed="0.00" departDelay="3.00" arrival="243.00" arrivalLane="1to1+_0" arrivalPos="89.60" arrivalSpeed="10.28" duration="171.00" routeLength="383.13" waitingTime="83.00" waitingCount="4" stopTime="0.00" timeLoss="147.33" rerouteNo="0" devices="tripinfo_route11_37" vType="default_type" speedFactor="1.18" vaporized=""/>