<?xml version="1.0" encoding="UTF-8"?>

<!-- generated on 06/28/19 02:49:05 by Eclipse SUMO GUI Version 1.2.0
<configuration xmlns:xsi="http://www.w3.org/2001/XMLSchema-instance" xsi:noNamespaceSchemaLocation="http://sumo.dlr.de/xsd/sumoConfiguration.xsd">

    <input>
        <net-file value="data/network.net.xml"/>
        <route-files value="data/route.rou.xml"/>
    </input>

    <output>
        <tripinfo-output value="tripinfo.xml"/>
    </output>

    <time>
        <begin value="0"/>
    </time>

    <report>
        <verbose value="true"/>
        <no-step-log value="true"/>
    </report>

    <traci_server>
        <remote-port value="50460"/>
    </traci_server>

</configuration>
-->

<tripinfos xmlns:xsi="http://www.w3.org/2001/XMLSchema-instance" xsi:noNamespaceSchemaLocation="http://sumo.dlr.de/xsd/tripinfo_file.xsd">
    <tripinfo id="route1_0" depart="0.00" departLane="1-to1_0" departPos="5.10" departSpeed="0.00" departDelay="0.00" arrival="26.00" arrivalLane="1to1+_0" arrivalPos="89.60" arrivalSpeed="15.33" duration="26.00" routeLength="194.90" waitingTime="0.00" waitingCount="0" stopTime="0.00" timeLoss="13.57" rerouteNo="0" devices="tripinfo_route1_0" vType="default_type" speedFactor="1.06" vaporized=""/>
    <tripinfo id="route1_3" depart="5.00" departLane="1-to1_0" departPos="5.10" departSpeed="0.00" departDelay="2.00" arrival="30.00" arrivalLane="1to1+_0" arrivalPos="89.60" arrivalSpeed="15.21" duration="25.00" routeLength="194.90" waitingTime="0.00" waitingCount="0" stopTime="0.00" timeLoss="12.78" rerouteNo="0" devices="tripinfo_route1_3" vType="default_type" speedFactor="1.08" vaporized=""/>
    <tripinfo id="route1_5" depart="11.00" departLane="1-to1_0" departPos="5.10" departSpeed="0.00" departDelay="0.00" arrival="37.00" arrivalLane="1to1+_0" arrivalPos="89.60" arrivalSpeed="15.31" duration="26.00" routeLength="194.90" waitingTime="0.00" waitingCount="0" stopTime="0.00" timeLoss="13.45" rerouteNo="0" devices="tripinfo_route1_5" vType="default_type" speedFactor="0.83" vaporized=""/>
    <tripinfo id="route5_4" depart="11.00" departLane="0to1_0" departPos="5.10" departSpeed="0.00" departDelay="5.00" arrival="40.00" arrivalLane="1to1+_1" arrivalPos="89.60" arrivalSpeed="13.35" duration="29.00" routeLength="193.45" waitingTime="0.00" waitingCount="0" stopTime="0.00" timeLoss="16.08" rerouteNo="0" devices="tripinfo_route5_4" vType="default_type" speedFactor="1.03" vaporized=""/>
    <tripinfo id="route0_2" depart="6.00" departLane="0to1_0" departPos="5.10" departSpeed="0.00" departDelay="4.00" arrival="45.00" arrivalLane="3to4_0" arrivalPos="89.60" arrivalSpeed="16.60" duration="39.00" routeLength="394.90" waitingTime="0.00" waitingCount="0" stopTime="0.00" timeLoss="14.77" rerouteNo="0" devices="tripinfo_route0_2" vType="default_type" speedFactor="1.01" vaporized=""/>
    <tripinfo id="route5_6" depart="17.00" departLane="0to1_0" departPos="5.10" departSpeed="0.00" departDelay="3.00" arrival="47.00" arrivalLane="1to1+_1" arrivalPos="89.60" arrivalSpeed="12.43" duration="30.00" routeLength="193.45" waitingTime="0.00" waitingCount="0" stopTime="0.00" timeLoss="17.29" rerouteNo="0" devices="tripinfo_route5_6" vType="default_type" speedFactor="1.05" vaporized=""/>
    <tripinfo id="route4_7" depart="22.00" departLane="0to1_0" departPos="5.10" departSpeed="0.00" departDelay="6.00" arrival="62.00" arrivalLane="2to2+_1" arrivalPos="89.60" arrivalSpeed="13.57" duration="40.00" routeLength="293.46" waitingTime="0.00" waitingCount="0" stopTime="0.00" timeLoss="20.80" rerouteNo="0" devices="tripinfo_route4_7" vType="default_type" speedFactor="0.89" vaporized=""/>
    <tripinfo id="route3_1" depart="1.00" departLane="0to1_0" departPos="5.10" departSpeed="0.00" departDelay="0.00" arrival="66.00" arrivalLane="3to3-_0" arrivalPos="89.60" arrivalSpeed="12.90" duration="65.00" routeLength="383.13" waitingTime="9.00" waitingCount="1" stopTime="0.00" timeLoss="40.75" rerouteNo="0" devices="tripinfo_route3_1" vType="default_type" speedFactor="0.94" vaporized=""/>
    <tripinfo id="route4_8" depart="27.00" departLane="0to1_0" departPos="5.10" departSpeed="0.00" departDelay="7.00" arrival="67.00" arrivalLane="2to2+_1" arrivalPos="89.60" arrivalSpeed="13.84" duration="40.00" routeLength="293.46" waitingTime="0.00" waitingCount="0" stopTime="0.00" timeLoss="20.84" rerouteNo="0" devices="tripinfo_route4_8" vType="default_type" speedFactor="0.94" vaporized=""/>
    <tripinfo id="route2_11" depart="48.00" departLane="1+to1_0" departPos="5.10" departSpeed="0.00" departDelay="0.00" arrival="73.00" arrivalLane="1to1-_0" arrivalPos="89.60" arrivalSpeed="15.20" duration="25.00" routeLength="194.90" waitingTime="0.00" waitingCount="0" stopTime="0.00" timeLoss="12.93" rerouteNo="0" devices="tripinfo_route2_11" vType="default_type" speedFactor="1.03" vaporized=""/>
    <tripinfo id="route0_9" depart="32.00" departLane="0to1_0" departPos="5.10" departSpeed="0.00" departDelay="11.00" arrival="76.00" arrivalLane="3to4_0" arrivalPos="89.60" arrivalSpeed="16.52" duration="44.00" routeLength="394.90" waitingTime="0.00" waitingCount="0" stopTime="0.00" timeLoss="19.45" rerouteNo="0" devices="tripinfo_route0_9" vType="default_type" speedFactor="0.86" vaporized=""/>
    <tripinfo id="route5_10" depart="44.00" departLane="0to1_0" departPos="5.10" departSpeed="0.00" departDelay="0.00" arrival="85.00" arrivalLane="1to1+_1" arrivalPos="89.60" arrivalSpeed="10.92" duration="41.00" routeLength="193.45" waitingTime="5.00" waitingCount="1" stopTime="0.00" timeLoss="28.61" rerouteNo="0" devices="tripinfo_route5_10" vType="default_type" speedFactor="1.09" vaporized=""/>
    <tripinfo id="route2_15" depart="61.00" departLane="1+to1_0" departPos="5.10" departSpeed="0.00" departDelay="0.00" arrival="87.00" arrivalLane="1to1-_0" arrivalPos="89.60" arrivalSpeed="14.85" duration="26.00" routeLength="194.90" waitingTime="0.00" waitingCount="0" stopTime="0.00" timeLoss="13.66" rerouteNo="0" devices="tripinfo_route2_15" vType="default_type" speedFactor="0.93" vaporized=""/>
    <tripinfo id="route1_17" depart="69.00" departLane="1-to1_0" departPos="5.10" departSpeed="0.00" departDelay="0.00" arrival="96.00" arrivalLane="1to1+_0" arrivalPos="89.60" arrivalSpeed="15.37" duration="27.00" routeLength="194.90" waitingTime="0.00" waitingCount="0" stopTime="0.00" timeLoss="14.41" rerouteNo="0" devices="tripinfo_route1_17" vType="default_type" speedFactor="0.94" vaporized=""/>
    <tripinfo id="route1_18" depart="74.00" departLane="1-to1_0" departPos="5.10" departSpeed="0.00" departDelay="3.00" arrival="101.00" arrivalLane="1to1+_0" arrivalPos="89.60" arrivalSpeed="15.76" duration="27.00" routeLength="194.90" waitingTime="0.00" waitingCount="0" stopTime="0.00" timeLoss="14.51" rerouteNo="0" devices="tripinfo_route1_18" vType="default_type" speedFactor="0.94" vaporized=""/>
    <tripinfo id="route3_12" depart="49.00" departLane="0to1_0" departPos="5.10" departSpeed="0.00" departDelay="0.00" arrival="104.00" arrivalLane="3to3-_0" arrivalPos="89.60" arrivalSpeed="12.64" duration="55.00" routeLength="383.13" waitingTime="0.00" waitingCount="0" stopTime="0.00" timeLoss="31.13" rerouteNo="0" devices="tripinfo_route3_12" vType="default_type" speedFactor="1.05" vaporized=""/>
    <tripinfo id="route1_19" depart="80.00" departLane="1-to1_0" departPos="5.10" departSpeed="0.00" departDelay="0.00" arrival="106.00" arrivalLane="1to1+_0" arrivalPos="89.60" arrivalSpeed="15.01" duration="26.00" routeLength="194.90" waitingTime="0.00" waitingCount="0" stopTime="0.00" timeLoss="13.68" rerouteNo="0" devices="tripinfo_route1_19" vType="default_type" speedFactor="1.16" vaporized=""/>
    <tripinfo id="route2_23" depart="86.00" departLane="1+to1_0" departPos="5.10" departSpeed="0.00" departDelay="0.00" arrival="110.00" arrivalLane="1to1-_0" arrivalPos="89.60" arrivalSpeed="15.76" duration="24.00" routeLength="194.90" waitingTime="0.00" waitingCount="0" stopTime="0.00" timeLoss="11.97" rerouteNo="0" devices="tripinfo_route2_23" vType="default_type" speedFactor="0.89" vaporized=""/>
    <tripinfo id="route1_20" depart="85.00" departLane="1-to1_0" departPos="5.10" departSpeed="0.00" departDelay="3.00" arrival="111.00" arrivalLane="1to1+_0" arrivalPos="89.60" arrivalSpeed="15.06" duration="26.00" routeLength="194.90" waitingTime="0.00" waitingCount="0" stopTime="0.00" timeLoss="13.79" rerouteNo="0" devices="tripinfo_route1_20" vType="default_type" speedFactor="1.02" vaporized=""/>
    <tripinfo id="route1_26" depart="98.00" departLane="1-to1_0" departPos="5.10" departSpeed="0.00" departDelay="0.00" arrival="123.00" arrivalLane="1to1+_0" arrivalPos="89.60" arrivalSpeed="14.95" duration="25.00" routeLength="194.90" waitingTime="0.00" waitingCount="0" stopTime="0.00" timeLoss="13.01" rerouteNo="0" devices="tripinfo_route1_26" vType="default_type" speedFactor="0.92" vaporized=""/>
    <tripinfo id="route1_28" depart="106.00" departLane="1-to1_0" departPos="5.10" departSpeed="0.00" departDelay="0.00" arrival="132.00" arrivalLane="1to1+_0" arrivalPos="89.60" arrivalSpeed="15.29" duration="26.00" routeLength="194.90" waitingTime="0.00" waitingCount="0" stopTime="0.00" timeLoss="13.49" rerouteNo="0" devices="tripinfo_route1_28" vType="default_type" speedFactor="1.13" vaporized=""/>
    <tripinfo id="route0_14" depart="59.00" departLane="0to1_0" departPos="5.10" departSpeed="0.00" departDelay="2.00" arrival="135.00" arrivalLane="3to4_0" arrivalPos="89.60" arrivalSpeed="16.45" duration="76.00" routeLength="394.90" waitingTime="25.00" waitingCount="1" stopTime="0.00" timeLoss="52.20" rerouteNo="0" devices="tripinfo_route0_14" vType="default_type" speedFactor="0.99" vaporized=""/>
    <tripinfo id="route0_13" depart="54.00" departLane="0to1_0" departPos="5.10" departSpeed="0.00" departDelay="0.00" arrival="137.00" arrivalLane="3to4_0" arrivalPos="89.60" arrivalSpeed="16.27" duration="83.00" routeLength="394.90" waitingTime="31.00" waitingCount="1" stopTime="0.00" timeLoss="59.22" rerouteNo="0" devices="tripinfo_route0_13" vType="default_type" speedFactor="1.12" vaporized=""/>
    <tripinfo id="route2_30" depart="119.00" departLane="1+to1_0" departPos="5.10" departSpeed="0.00" departDelay="0.00" arrival="144.00" arrivalLane="1to1-_0" arrivalPos="89.60" arrivalSpeed="15.83" duration="25.00" routeLength="194.90" waitingTime="0.00" waitingCount="0" stopTime="0.00" timeLoss="12.57" rerouteNo="0" devices="tripinfo_route2_30" vType="default_type" speedFactor="1.18" vaporized=""/>
    <tripinfo id="route2_31" depart="124.00" departLane="1+to1_0" departPos="5.10" departSpeed="0.00" departDelay="3.00" arrival="149.00" arrivalLane="1to1-_0" arrivalPos="89.60" arrivalSpeed="14.40" duration="25.00" routeLength="194.90" waitingTime="0.00" waitingCount="0" stopTime="0.00" timeLoss="13.27" rerouteNo="0" devices="tripinfo_route2_31" vType="default_type" speedFactor="1.15" vaporized=""/>
    <tripinfo id="route4_16" depart="65.00" departLane="0to1_0" departPos="5.10" departSpeed="0.00" departDelay="0.00" arrival="154.00" arrivalLane="2to2+_1" arrivalPos="89.60" arrivalSpeed="12.84" duration="89.00" routeLength="293.46" waitingTime="36.00" waitingCount="2" stopTime="0.00" timeLoss="70.02" rerouteNo="0" devices="tripinfo_route4_16" vType="default_type" speedFactor="0.88" vaporized=""/>
    <tripinfo id="route3_21" depart="83.00" departLane="0to1_0" departPos="5.10" departSpeed="0.00" departDelay="0.00" arrival="161.00" arrivalLane="3to3-_0" arrivalPos="89.60" arrivalSpeed="12.16" duration="78.00" routeLength="383.13" waitingTime="18.00" waitingCount="2" stopTime="0.00" timeLoss="54.40" rerouteNo="0" devices="tripinfo_route3_21" vType="default_type" speedFactor="1.01" vaporized=""/>
    <tripinfo id="route1_32" depart="136.00" departLane="1-to1_0" departPos="5.10" departSpeed="0.00" departDelay="0.00" arrival="162.00" arrivalLane="1to1+_0" arrivalPos="89.60" arrivalSpeed="15.39" duration="26.00" routeLength="194.90" waitingTime="0.00" waitingCount="0" stopTime="0.00" timeLoss="13.65" rerouteNo="0" devices="tripinfo_route1_32" vType="default_type" speedFactor="1.01" vaporized=""/>
    <tripinfo id="route0_24" depart="93.00" departLane="0to1_0" departPos="5.10" departSpeed="0.00" departDelay="5.00" arrival="173.00" arrivalLane="3to4_0" arrivalPos="89.60" arrivalSpeed="16.34" duration="80.00" routeLength="394.90" waitingTime="26.00" waitingCount="2" stopTime="0.00" timeLoss="56.05" rerouteNo="0" devices="tripinfo_route0_24" vType="default_type" speedFactor="0.83" vaporized=""/>
    <tripinfo id="route0_22" depart="88.00" departLane="0to1_0" departPos="5.10" departSpeed="0.00" departDelay="4.00" arrival="176.00" arrivalLane="3to4_0" arrivalPos="89.60" arrivalSpeed="16.39" duration="88.00" routeLength="394.90" waitingTime="25.00" waitingCount="3" stopTime="0.00" timeLoss="64.14" rerouteNo="0" devices="tripinfo_route0_22" vType="default_type" speedFactor="0.98" vaporized=""/>
    <tripinfo id="route2_37" depart="151.00" departLane="1+to1_0" departPos="5.10" departSpeed="0.00" departDelay="0.00" arrival="177.00" arrivalLane="1to1-_0" arrivalPos="89.60" arrivalSpeed="15.48" duration="26.00" routeLength="194.90" waitingTime="0.00" waitingCount="0" stopTime="0.00" timeLoss="13.78" rerouteNo="0" devices="tripinfo_route2_37" vType="default_type" speedFactor="1.18" vaporized=""/>
    <tripinfo id="route4_27" depart="103.00" departLane="0to1_0" departPos="5.10" departSpeed="0.00" departDelay="4.00" arrival="184.00" arrivalLane="2to2+_1" arrivalPos="89.60" arrivalSpeed="12.80" duration="81.00" routeLength="293.46" waitingTime="21.00" waitingCount="3" stopTime="0.00" timeLoss="61.69" rerouteNo="0" devices="tripinfo_route4_27" vType="default_type" speedFactor="0.95" vaporized=""/>
    <tripinfo id="route2_38" depart="159.00" departLane="1+to1_0" departPos="5.10" departSpeed="0.00" departDelay="0.00" arrival="184.00" arrivalLane="1to1-_0" arrivalPos="89.60" arrivalSpeed="15.36" duration="25.00" routeLength="194.90" waitingTime="0.00" waitingCount="0" stopTime="0.00" timeLoss="12.80" rerouteNo="0" devices="tripinfo_route2_38" vType="default_type" speedFactor="1.10" vaporized=""/>
    <tripinfo id="route3_25" depart="98.00" departLane="0to1_0" departPos="5.10" departSpeed="0.00" departDelay="8.00" arrival="192.00" arrivalLane="3to3-_0" arrivalPos="89.60" arrivalSpeed="11.51" duration="94.00" routeLength="383.13" waitingTime="26.00" waitingCount="3" stopTime="0.00" timeLoss="70.30" rerouteNo="0" devices="tripinfo_route3_25" vType="default_type" speedFactor="0.87" vaporized=""/>
    <tripinfo id="route1_43" depart="172.00" departLane="1-to1_0" departPos="5.10" departSpeed="0.00" departDelay="0.00" arrival="198.00" arrivalLane="1to1+_0" arrivalPos="89.60" arrivalSpeed="14.86" duration="26.00" routeLength="194.90" waitingTime="0.00" waitingCount="0" stopTime="0.00" timeLoss="13.66" rerouteNo="0" devices="tripinfo_route1_43" vType="default_type" speedFactor="1.04" vaporized=""/>
    <tripinfo id="route2_44" depart="172.00" departLane="1+to1_0" departPos="5.10" departSpeed="0.00" departDelay="0.00" arrival="198.00" arrivalLane="1to1-_0" arrivalPos="89.60" arrivalSpeed="14.61" duration="26.00" routeLength="194.90" waitingTime="0.00" waitingCount="0" stopTime="0.00" timeLoss="14.16" rerouteNo="0" devices="tripinfo_route2_44" vType="default_type" speedFactor="1.04" vaporized=""/>
    <tripinfo id="route4_33" depart="137.00" departLane="0to1_0" departPos="5.10" departSpeed="0.00" departDelay="0.00" arrival="204.00" arrivalLane="2to2+_1" arrivalPos="89.60" arrivalSpeed="14.04" duration="67.00" routeLength="293.46" waitingTime="17.00" waitingCount="2" stopTime="0.00" timeLoss="48.39" rerouteNo="0" devices="tripinfo_route4_33" vType="default_type" speedFactor="1.17" vaporized=""/>
    <tripinfo id="route5_34" depart="142.00" departLane="0to1_0" departPos="5.10" departSpeed="0.00" departDelay="1.00" arrival="209.00" arrivalLane="1to1+_1" arrivalPos="89.60" arrivalSpeed="11.29" duration="67.00" routeLength="193.45" waitingTime="21.00" waitingCount="2" stopTime="0.00" timeLoss="54.47" rerouteNo="0" devices="tripinfo_route5_34" vType="default_type" speedFactor="0.99" vaporized=""/>
    <tripinfo id="route0_29" depart="114.00" departLane="0to1_0" departPos="5.10" departSpeed="0.00" departDelay="0.00" arrival="210.00" arrivalLane="3to4_0" arrivalPos="89.60" arrivalSpeed="16.57" duration="96.00" routeLength="394.90" waitingTime="30.00" waitingCount="3" stopTime="0.00" timeLoss="72.08" rerouteNo="0" devices="tripinfo_route0_29" vType="default_type" speedFactor="0.93" vaporized=""/>
    <tripinfo id="route5_40" depart="166.00" departLane="0to1_0" departPos="5.10" departSpeed="0.00" departDelay="1.00" arrival="214.00" arrivalLane="1to1+_1" arrivalPos="89.60" arrivalSpeed="12.30" duration="48.00" routeLength="193.45" waitingTime="5.00" waitingCount="1" stopTime="0.00" timeLoss="35.06" rerouteNo="0" devices="tripinfo_route5_40" vType="default_type" speedFactor="1.03" vaporized=""/>
    <tripinfo id="route5_41" depart="171.00" departLane="0to1_0" departPos="5.10" departSpeed="0.00" departDelay="3.00" arrival="216.00" arrivalLane="1to1+_1" arrivalPos="89.60" arrivalSpeed="13.06" duration="45.00" routeLength="193.45" waitingTime="4.00" waitingCount="1" stopTime="0.00" timeLoss="31.78" rerouteNo="0" devices="tripinfo_route5_41" vType="default_type" speedFactor="0.96" vaporized=""/>
</tripinfos>
