<?xml version="1.0" encoding="UTF-8"?>

<!-- generated on 06/28/19 07:49:50 by Eclipse SUMO GUI Version 1.2.0
<configuration xmlns:xsi="http://www.w3.org/2001/XMLSchema-instance" xsi:noNamespaceSchemaLocation="http://sumo.dlr.de/xsd/sumoConfiguration.xsd">

    <input>
        <net-file value="data/network.net.xml"/>
        <route-files value="data/route.rou.xml"/>
    </input>

    <output>
        <tripinfo-output value="tripinfo.xml"/>
    </output>

    <time>
        <begin value="0"/>
    </time>

    <report>
        <verbose value="true"/>
        <no-step-log value="true"/>
    </report>

    <traci_server>
        <remote-port value="55635"/>
    </traci_server>

</configuration>
-->

<tripinfos xmlns:xsi="http://www.w3.org/2001/XMLSchema-instance" xsi:noNamespaceSchemaLocation="http://sumo.dlr.de/xsd/tripinfo_file.xsd">
    <tripinfo id="route1_0" depart="0.00" departLane="1-to1_0" departPos="5.10" departSpeed="0.00" departDelay="0.00" arrival="26.00" arrivalLane="1to1+_0" arrivalPos="89.60" arrivalSpeed="15.09" duration="26.00" routeLength="194.90" waitingTime="0.00" waitingCount="0" stopTime="0.00" timeLoss="14.15" rerouteNo="0" devices="tripinfo_route1_0" vType="default_type" speedFactor="1.06" vaporized=""/>
    <tripinfo id="route2_4" depart="3.00" departLane="1+to1_0" departPos="5.10" departSpeed="0.00" departDelay="0.00" arrival="29.00" arrivalLane="1to1-_0" arrivalPos="89.60" arrivalSpeed="15.14" duration="26.00" routeLength="194.90" waitingTime="0.00" waitingCount="0" stopTime="0.00" timeLoss="13.72" rerouteNo="0" devices="tripinfo_route2_4" vType="default_type" speedFactor="1.03" vaporized=""/>
    <tripinfo id="route2_5" depart="8.00" departLane="1+to1_0" departPos="5.10" departSpeed="0.00" departDelay="3.00" arrival="34.00" arrivalLane="1to1-_0" arrivalPos="89.60" arrivalSpeed="15.82" duration="26.00" routeLength="194.90" waitingTime="0.00" waitingCount="0" stopTime="0.00" timeLoss="13.51" rerouteNo="0" devices="tripinfo_route2_5" vType="default_type" speedFactor="0.83" vaporized=""/>
    <tripinfo id="route1_30" depart="55.00" departLane="1-to1_0" departPos="5.10" departSpeed="0.00" departDelay="0.00" arrival="80.00" arrivalLane="1to1+_0" arrivalPos="89.60" arrivalSpeed="15.45" duration="25.00" routeLength="194.90" waitingTime="0.00" waitingCount="0" stopTime="0.00" timeLoss="12.92" rerouteNo="0" devices="tripinfo_route1_30" vType="default_type" speedFactor="1.18" vaporized=""/>
    <tripinfo id="route10_22" depart="47.00" departLane="4to3_0" departPos="5.10" departSpeed="0.00" departDelay="9.00" arrival="83.00" arrivalLane="2to2+_0" arrivalPos="89.60" arrivalSpeed="12.28" duration="36.00" routeLength="283.13" waitingTime="0.00" waitingCount="0" stopTime="0.00" timeLoss="17.81" rerouteNo="0" devices="tripinfo_route10_22" vType="default_type" speedFactor="0.98" vaporized=""/>
    <tripinfo id="route10_25" depart="57.00" departLane="4to3_0" departPos="5.10" departSpeed="0.00" departDelay="16.00" arrival="94.00" arrivalLane="2to2+_0" arrivalPos="89.60" arrivalSpeed="11.43" duration="37.00" routeLength="283.13" waitingTime="1.00" waitingCount="1" stopTime="0.00" timeLoss="19.39" rerouteNo="0" devices="tripinfo_route10_25" vType="default_type" speedFactor="0.87" vaporized=""/>
    <tripinfo id="route2_47" depart="87.00" departLane="1+to1_0" departPos="5.10" departSpeed="0.00" departDelay="0.00" arrival="112.00" arrivalLane="1to1-_0" arrivalPos="89.60" arrivalSpeed="15.29" duration="25.00" routeLength="194.90" waitingTime="0.00" waitingCount="0" stopTime="0.00" timeLoss="13.04" rerouteNo="0" devices="tripinfo_route2_47" vType="default_type" speedFactor="0.90" vaporized=""/>
    <tripinfo id="route1_52" depart="91.00" departLane="1-to1_0" departPos="5.10" departSpeed="0.00" departDelay="0.00" arrival="116.00" arrivalLane="1to1+_0" arrivalPos="89.60" arrivalSpeed="15.42" duration="25.00" routeLength="194.90" waitingTime="0.00" waitingCount="0" stopTime="0.00" timeLoss="12.93" rerouteNo="0" devices="tripinfo_route1_52" vType="default_type" speedFactor="1.02" vaporized=""/>
    <tripinfo id="route2_53" depart="92.00" departLane="1+to1_0" departPos="5.10" departSpeed="0.00" departDelay="1.00" arrival="118.00" arrivalLane="1to1-_0" arrivalPos="89.60" arrivalSpeed="15.13" duration="26.00" routeLength="194.90" waitingTime="0.00" waitingCount="0" stopTime="0.00" timeLoss="14.15" rerouteNo="0" devices="tripinfo_route2_53" vType="default_type" speedFactor="1.10" vaporized=""/>
    <tripinfo id="route10_54" depart="94.00" departLane="4to3_0" departPos="5.10" departSpeed="0.00" departDelay="3.00" arrival="131.00" arrivalLane="2to2+_0" arrivalPos="89.60" arrivalSpeed="12.07" duration="37.00" routeLength="283.13" waitingTime="0.00" waitingCount="0" stopTime="0.00" timeLoss="18.92" rerouteNo="0" devices="tripinfo_route10_54" vType="default_type" speedFactor="1.00" vaporized=""/>
    <tripinfo id="route1_57" depart="106.00" departLane="1-to1_0" departPos="5.10" departSpeed="0.00" departDelay="0.00" arrival="132.00" arrivalLane="1to1+_0" arrivalPos="89.60" arrivalSpeed="15.59" duration="26.00" routeLength="194.90" waitingTime="0.00" waitingCount="0" stopTime="0.00" timeLoss="13.80" rerouteNo="0" devices="tripinfo_route1_57" vType="default_type" speedFactor="1.14" vaporized=""/>
    <tripinfo id="route10_59" depart="107.00" departLane="4to3_0" departPos="5.10" departSpeed="0.00" departDelay="0.00" arrival="145.00" arrivalLane="2to2+_0" arrivalPos="89.60" arrivalSpeed="11.71" duration="38.00" routeLength="283.13" waitingTime="0.00" waitingCount="0" stopTime="0.00" timeLoss="19.37" rerouteNo="0" devices="tripinfo_route10_59" vType="default_type" speedFactor="0.97" vaporized=""/>
    <tripinfo id="route10_66" depart="117.00" departLane="4to3_0" departPos="5.10" departSpeed="0.00" departDelay="2.00" arrival="154.00" arrivalLane="2to2+_0" arrivalPos="89.60" arrivalSpeed="11.58" duration="37.00" routeLength="283.13" waitingTime="0.00" waitingCount="0" stopTime="0.00" timeLoss="19.38" rerouteNo="0" devices="tripinfo_route10_66" vType="default_type" speedFactor="0.91" vaporized=""/>
    <tripinfo id="route10_69" depart="123.00" departLane="4to3_0" departPos="5.10" departSpeed="0.00" departDelay="0.00" arrival="160.00" arrivalLane="2to2+_0" arrivalPos="89.60" arrivalSpeed="12.32" duration="37.00" routeLength="283.13" waitingTime="0.00" waitingCount="0" stopTime="0.00" timeLoss="18.84" rerouteNo="0" devices="tripinfo_route10_69" vType="default_type" speedFactor="1.02" vaporized=""/>
    <tripinfo id="route2_77" depart="144.00" departLane="1+to1_0" departPos="5.10" departSpeed="0.00" departDelay="0.00" arrival="170.00" arrivalLane="1to1-_0" arrivalPos="89.60" arrivalSpeed="15.33" duration="26.00" routeLength="194.90" waitingTime="0.00" waitingCount="0" stopTime="0.00" timeLoss="13.81" rerouteNo="0" devices="tripinfo_route2_77" vType="default_type" speedFactor="0.98" vaporized=""/>
    <tripinfo id="route2_79" depart="149.00" departLane="1+to1_0" departPos="5.10" departSpeed="0.00" departDelay="0.00" arrival="175.00" arrivalLane="1to1-_0" arrivalPos="89.60" arrivalSpeed="16.03" duration="26.00" routeLength="194.90" waitingTime="0.00" waitingCount="0" stopTime="0.00" timeLoss="13.70" rerouteNo="0" devices="tripinfo_route2_79" vType="default_type" speedFactor="1.09" vaporized=""/>
    <tripinfo id="route2_82" depart="154.00" departLane="1+to1_0" departPos="5.10" departSpeed="0.00" departDelay="2.00" arrival="179.00" arrivalLane="1to1-_0" arrivalPos="89.60" arrivalSpeed="15.32" duration="25.00" routeLength="194.90" waitingTime="0.00" waitingCount="0" stopTime="0.00" timeLoss="12.94" rerouteNo="0" devices="tripinfo_route2_82" vType="default_type" speedFactor="1.02" vaporized=""/>
    <tripinfo id="route1_88" depart="163.00" departLane="1-to1_0" departPos="5.10" departSpeed="0.00" departDelay="0.00" arrival="189.00" arrivalLane="1to1+_0" arrivalPos="89.60" arrivalSpeed="15.39" duration="26.00" routeLength="194.90" waitingTime="0.00" waitingCount="0" stopTime="0.00" timeLoss="13.48" rerouteNo="0" devices="tripinfo_route1_88" vType="default_type" speedFactor="1.01" vaporized=""/>
    <tripinfo id="route1_94" depart="168.00" departLane="1-to1_0" departPos="5.10" departSpeed="0.00" departDelay="1.00" arrival="194.00" arrivalLane="1to1+_0" arrivalPos="89.60" arrivalSpeed="14.53" duration="26.00" routeLength="194.90" waitingTime="0.00" waitingCount="0" stopTime="0.00" timeLoss="14.14" rerouteNo="0" devices="tripinfo_route1_94" vType="default_type" speedFactor="1.09" vaporized=""/>
    <tripinfo id="route10_86" depart="161.00" departLane="4to3_0" departPos="5.10" departSpeed="0.00" departDelay="0.00" arrival="196.00" arrivalLane="2to2+_0" arrivalPos="89.60" arrivalSpeed="12.42" duration="35.00" routeLength="283.13" waitingTime="0.00" waitingCount="0" stopTime="0.00" timeLoss="17.34" rerouteNo="0" devices="tripinfo_route10_86" vType="default_type" speedFactor="1.00" vaporized=""/>
    <tripinfo id="route2_100" depart="180.00" departLane="1+to1_0" departPos="5.10" departSpeed="0.00" departDelay="0.00" arrival="205.00" arrivalLane="1to1-_0" arrivalPos="89.60" arrivalSpeed="16.12" duration="25.00" routeLength="194.90" waitingTime="0.00" waitingCount="0" stopTime="0.00" timeLoss="12.35" rerouteNo="0" devices="tripinfo_route2_100" vType="default_type" speedFactor="1.07" vaporized=""/>
    <tripinfo id="route1_106" depart="195.00" departLane="1-to1_0" departPos="5.10" departSpeed="0.00" departDelay="0.00" arrival="220.00" arrivalLane="1to1+_0" arrivalPos="89.60" arrivalSpeed="15.31" duration="25.00" routeLength="194.90" waitingTime="0.00" waitingCount="0" stopTime="0.00" timeLoss="13.11" rerouteNo="0" devices="tripinfo_route1_106" vType="default_type" speedFactor="1.01" vaporized=""/>
    <tripinfo id="route2_108" depart="197.00" departLane="1+to1_0" departPos="5.10" departSpeed="0.00" departDelay="0.00" arrival="222.00" arrivalLane="1to1-_0" arrivalPos="89.60" arrivalSpeed="15.62" duration="25.00" routeLength="194.90" waitingTime="0.00" waitingCount="0" stopTime="0.00" timeLoss="12.61" rerouteNo="0" devices="tripinfo_route2_108" vType="default_type" speedFactor="1.06" vaporized=""/>
    <tripinfo id="route1_112" depart="203.00" departLane="1-to1_0" departPos="5.10" departSpeed="0.00" departDelay="0.00" arrival="228.00" arrivalLane="1to1+_0" arrivalPos="89.60" arrivalSpeed="15.09" duration="25.00" routeLength="194.90" waitingTime="0.00" waitingCount="0" stopTime="0.00" timeLoss="12.76" rerouteNo="0" devices="tripinfo_route1_112" vType="default_type" speedFactor="1.10" vaporized=""/>
    <tripinfo id="route1_114" depart="208.00" departLane="1-to1_0" departPos="5.10" departSpeed="0.00" departDelay="0.00" arrival="235.00" arrivalLane="1to1+_0" arrivalPos="89.60" arrivalSpeed="15.15" duration="27.00" routeLength="194.90" waitingTime="0.00" waitingCount="0" stopTime="0.00" timeLoss="14.45" rerouteNo="0" devices="tripinfo_route1_114" vType="default_type" speedFactor="1.10" vaporized=""/>
    <tripinfo id="route2_121" depart="218.00" departLane="1+to1_0" departPos="5.10" departSpeed="0.00" departDelay="0.00" arrival="244.00" arrivalLane="1to1-_0" arrivalPos="89.60" arrivalSpeed="14.72" duration="26.00" routeLength="194.90" waitingTime="0.00" waitingCount="0" stopTime="0.00" timeLoss="13.68" rerouteNo="0" devices="tripinfo_route2_121" vType="default_type" speedFactor="1.10" vaporized=""/>
    <tripinfo id="route1_132" depart="234.00" departLane="1-to1_0" departPos="5.10" departSpeed="0.00" departDelay="0.00" arrival="259.00" arrivalLane="1to1+_0" arrivalPos="89.60" arrivalSpeed="14.96" duration="25.00" routeLength="194.90" waitingTime="0.00" waitingCount="0" stopTime="0.00" timeLoss="13.19" rerouteNo="0" devices="tripinfo_route1_132" vType="default_type" speedFactor="0.96" vaporized=""/>
    <tripinfo id="route1_134" depart="241.00" departLane="1-to1_0" departPos="5.10" departSpeed="0.00" departDelay="0.00" arrival="267.00" arrivalLane="1to1+_0" arrivalPos="89.60" arrivalSpeed="15.27" duration="26.00" routeLength="194.90" waitingTime="0.00" waitingCount="0" stopTime="0.00" timeLoss="13.56" rerouteNo="0" devices="tripinfo_route1_134" vType="default_type" speedFactor="1.23" vaporized=""/>
    <tripinfo id="route1_144" depart="256.00" departLane="1-to1_0" departPos="5.10" departSpeed="0.00" departDelay="0.00" arrival="281.00" arrivalLane="1to1+_0" arrivalPos="89.60" arrivalSpeed="14.65" duration="25.00" routeLength="194.90" waitingTime="0.00" waitingCount="0" stopTime="0.00" timeLoss="13.17" rerouteNo="0" devices="tripinfo_route1_144" vType="default_type" speedFactor="0.73" vaporized=""/>
    <tripinfo id="route2_146" depart="259.00" departLane="1+to1_0" departPos="5.10" departSpeed="0.00" departDelay="0.00" arrival="284.00" arrivalLane="1to1-_0" arrivalPos="89.60" arrivalSpeed="15.00" duration="25.00" routeLength="194.90" waitingTime="0.00" waitingCount="0" stopTime="0.00" timeLoss="13.06" rerouteNo="0" devices="tripinfo_route2_146" vType="default_type" speedFactor="0.89" vaporized=""/>
    <tripinfo id="route2_159" depart="281.00" departLane="1+to1_0" departPos="5.10" departSpeed="0.00" departDelay="0.00" arrival="306.00" arrivalLane="1to1-_0" arrivalPos="89.60" arrivalSpeed="15.43" duration="25.00" routeLength="194.90" waitingTime="0.00" waitingCount="0" stopTime="0.00" timeLoss="13.10" rerouteNo="0" devices="tripinfo_route2_159" vType="default_type" speedFactor="1.14" vaporized=""/>
    <tripinfo id="route9_1" depart="0.00" departLane="3-to3_0" departPos="5.10" departSpeed="0.00" departDelay="0.00" arrival="325.00" arrivalLane="3to4_0" arrivalPos="89.60" arrivalSpeed="16.39" duration="325.00" routeLength="183.13" waitingTime="301.00" waitingCount="1" stopTime="0.00" timeLoss="314.06" rerouteNo="0" devices="tripinfo_route9_1" vType="default_type" speedFactor="0.94" vaporized=""/>
    <tripinfo id="route1_170" depart="304.00" departLane="1-to1_0" departPos="5.10" departSpeed="0.00" departDelay="0.00" arrival="330.00" arrivalLane="1to1+_0" arrivalPos="89.60" arrivalSpeed="15.36" duration="26.00" routeLength="194.90" waitingTime="0.00" waitingCount="0" stopTime="0.00" timeLoss="13.41" rerouteNo="0" devices="tripinfo_route1_170" vType="default_type" speedFactor="1.09" vaporized=""/>
    <tripinfo id="route2_171" depart="304.00" departLane="1+to1_0" departPos="5.10" departSpeed="0.00" departDelay="0.00" arrival="330.00" arrivalLane="1to1-_0" arrivalPos="89.60" arrivalSpeed="15.31" duration="26.00" routeLength="194.90" waitingTime="0.00" waitingCount="0" stopTime="0.00" timeLoss="13.61" rerouteNo="0" devices="tripinfo_route2_171" vType="default_type" speedFactor="0.90" vaporized=""/>
    <tripinfo id="route1_173" depart="309.00" departLane="1-to1_0" departPos="5.10" departSpeed="0.00" departDelay="4.00" arrival="334.00" arrivalLane="1to1+_0" arrivalPos="89.60" arrivalSpeed="15.60" duration="25.00" routeLength="194.90" waitingTime="0.00" waitingCount="0" stopTime="0.00" timeLoss="13.15" rerouteNo="0" devices="tripinfo_route1_173" vType="default_type" speedFactor="1.14" vaporized=""/>
    <tripinfo id="route2_177" depart="313.00" departLane="1+to1_0" departPos="5.10" departSpeed="0.00" departDelay="0.00" arrival="338.00" arrivalLane="1to1-_0" arrivalPos="89.60" arrivalSpeed="15.82" duration="25.00" routeLength="194.90" waitingTime="0.00" waitingCount="0" stopTime="0.00" timeLoss="12.38" rerouteNo="0" devices="tripinfo_route2_177" vType="default_type" speedFactor="1.03" vaporized=""/>
    <tripinfo id="route12_2" depart="0.00" departLane="4to3_0" departPos="5.10" departSpeed="0.00" departDelay="0.00" arrival="341.00" arrivalLane="1to0_0" arrivalPos="89.60" arrivalSpeed="16.59" duration="341.00" routeLength="394.90" waitingTime="301.00" waitingCount="1" stopTime="0.00" timeLoss="318.05" rerouteNo="0" devices="tripinfo_route12_2" vType="default_type" speedFactor="1.01" vaporized=""/>
    <tripinfo id="route7_8" depart="9.00" departLane="2+to2_0" departPos="5.10" departSpeed="0.00" departDelay="0.00" arrival="341.00" arrivalLane="3to4_0" arrivalPos="89.60" arrivalSpeed="16.62" duration="332.00" routeLength="293.45" waitingTime="301.00" waitingCount="1" stopTime="0.00" timeLoss="315.08" rerouteNo="0" devices="tripinfo_route7_8" vType="default_type" speedFactor="0.94" vaporized=""/>
    <tripinfo id="route2_197" depart="341.00" departLane="1+to1_0" departPos="5.10" departSpeed="0.00" departDelay="0.00" arrival="367.00" arrivalLane="1to1-_0" arrivalPos="89.60" arrivalSpeed="15.74" duration="26.00" routeLength="194.90" waitingTime="0.00" waitingCount="0" stopTime="0.00" timeLoss="13.88" rerouteNo="0" devices="tripinfo_route2_197" vType="default_type" speedFactor="0.87" vaporized=""/>
    <tripinfo id="route12_13" depart="27.00" departLane="4to3_0" departPos="5.10" departSpeed="0.00" departDelay="3.00" arrival="370.00" arrivalLane="1to0_0" arrivalPos="89.60" arrivalSpeed="16.29" duration="343.00" routeLength="394.90" waitingTime="301.00" waitingCount="1" stopTime="0.00" timeLoss="320.07" rerouteNo="0" devices="tripinfo_route12_13" vType="default_type" speedFactor="1.12" vaporized=""/>
    <tripinfo id="route4_11" depart="22.00" departLane="0to1_0" departPos="5.10" departSpeed="0.00" departDelay="0.00" arrival="372.00" arrivalLane="2to2+_1" arrivalPos="89.60" arrivalSpeed="11.43" duration="350.00" routeLength="293.46" waitingTime="306.00" waitingCount="2" stopTime="0.00" timeLoss="332.83" rerouteNo="0" devices="tripinfo_route4_11" vType="default_type" speedFactor="1.03" vaporized=""/>
    <tripinfo id="route0_19" depart="42.00" departLane="0to1_0" departPos="5.10" departSpeed="0.00" departDelay="5.00" arrival="379.00" arrivalLane="3to4_0" arrivalPos="89.60" arrivalSpeed="16.51" duration="337.00" routeLength="394.90" waitingTime="301.00" waitingCount="1" stopTime="0.00" timeLoss="314.21" rerouteNo="0" devices="tripinfo_route0_19" vType="default_type" speedFactor="1.16" vaporized=""/>
    <tripinfo id="route1_205" depart="357.00" departLane="1-to1_0" departPos="5.10" departSpeed="0.00" departDelay="0.00" arrival="383.00" arrivalLane="1to1+_0" arrivalPos="89.60" arrivalSpeed="15.14" duration="26.00" routeLength="194.90" waitingTime="0.00" waitingCount="0" stopTime="0.00" timeLoss="13.66" rerouteNo="0" devices="tripinfo_route1_205" vType="default_type" speedFactor="1.02" vaporized=""/>
    <tripinfo id="route1_209" depart="362.00" departLane="1-to1_0" departPos="5.10" departSpeed="0.00" departDelay="1.00" arrival="386.00" arrivalLane="1to1+_0" arrivalPos="89.60" arrivalSpeed="15.40" duration="24.00" routeLength="194.90" waitingTime="0.00" waitingCount="0" stopTime="0.00" timeLoss="12.14" rerouteNo="0" devices="tripinfo_route1_209" vType="default_type" speedFactor="0.98" vaporized=""/>
    <tripinfo id="route1_212" depart="366.00" departLane="1-to1_0" departPos="5.10" departSpeed="0.00" departDelay="3.00" arrival="391.00" arrivalLane="1to1+_0" arrivalPos="89.60" arrivalSpeed="15.17" duration="25.00" routeLength="194.90" waitingTime="0.00" waitingCount="0" stopTime="0.00" timeLoss="13.31" rerouteNo="0" devices="tripinfo_route1_212" vType="default_type" speedFactor="1.00" vaporized=""/>
    <tripinfo id="route2_219" depart="372.00" departLane="1+to1_0" departPos="5.10" departSpeed="0.00" departDelay="0.00" arrival="397.00" arrivalLane="1to1-_0" arrivalPos="89.60" arrivalSpeed="14.92" duration="25.00" routeLength="194.90" waitingTime="0.00" waitingCount="0" stopTime="0.00" timeLoss="13.16" rerouteNo="0" devices="tripinfo_route2_219" vType="default_type" speedFactor="0.91" vaporized=""/>
    <tripinfo id="route2_229" depart="386.00" departLane="1+to1_0" departPos="5.10" departSpeed="0.00" departDelay="0.00" arrival="411.00" arrivalLane="1to1-_0" arrivalPos="89.60" arrivalSpeed="14.87" duration="25.00" routeLength="194.90" waitingTime="0.00" waitingCount="0" stopTime="0.00" timeLoss="13.15" rerouteNo="0" devices="tripinfo_route2_229" vType="default_type" speedFactor="0.99" vaporized=""/>
    <tripinfo id="route1_231" depart="387.00" departLane="1-to1_0" departPos="5.10" departSpeed="0.00" departDelay="0.00" arrival="412.00" arrivalLane="1to1+_0" arrivalPos="89.60" arrivalSpeed="15.61" duration="25.00" routeLength="194.90" waitingTime="0.00" waitingCount="0" stopTime="0.00" timeLoss="12.63" rerouteNo="0" devices="tripinfo_route1_231" vType="default_type" speedFactor="1.14" vaporized=""/>
    <tripinfo id="route1_233" depart="392.00" departLane="1-to1_0" departPos="5.10" departSpeed="0.00" departDelay="2.00" arrival="418.00" arrivalLane="1to1+_0" arrivalPos="89.60" arrivalSpeed="15.35" duration="26.00" routeLength="194.90" waitingTime="0.00" waitingCount="0" stopTime="0.00" timeLoss="13.77" rerouteNo="0" devices="tripinfo_route1_233" vType="default_type" speedFactor="1.15" vaporized=""/>
    <tripinfo id="route2_238" depart="398.00" departLane="1+to1_0" departPos="5.10" departSpeed="0.00" departDelay="0.00" arrival="423.00" arrivalLane="1to1-_0" arrivalPos="89.60" arrivalSpeed="15.45" duration="25.00" routeLength="194.90" waitingTime="0.00" waitingCount="0" stopTime="0.00" timeLoss="12.87" rerouteNo="0" devices="tripinfo_route2_238" vType="default_type" speedFactor="1.10" vaporized=""/>
    <tripinfo id="route1_234" depart="398.00" departLane="1-to1_0" departPos="5.10" departSpeed="0.00" departDelay="7.00" arrival="424.00" arrivalLane="1to1+_0" arrivalPos="89.60" arrivalSpeed="15.00" duration="26.00" routeLength="194.90" waitingTime="0.00" waitingCount="0" stopTime="0.00" timeLoss="13.71" rerouteNo="0" devices="tripinfo_route1_234" vType="default_type" speedFactor="0.91" vaporized=""/>
    <tripinfo id="route1_237" depart="403.00" departLane="1-to1_0" departPos="5.10" departSpeed="0.00" departDelay="9.00" arrival="428.00" arrivalLane="1to1+_0" arrivalPos="89.60" arrivalSpeed="15.29" duration="25.00" routeLength="194.90" waitingTime="0.00" waitingCount="0" stopTime="0.00" timeLoss="13.10" rerouteNo="0" devices="tripinfo_route1_237" vType="default_type" speedFactor="0.88" vaporized=""/>
    <tripinfo id="route2_239" depart="403.00" departLane="1+to1_0" departPos="5.10" departSpeed="0.00" departDelay="1.00" arrival="428.00" arrivalLane="1to1-_0" arrivalPos="89.60" arrivalSpeed="15.53" duration="25.00" routeLength="194.90" waitingTime="0.00" waitingCount="0" stopTime="0.00" timeLoss="12.69" rerouteNo="0" devices="tripinfo_route2_239" vType="default_type" speedFactor="1.13" vaporized=""/>
    <tripinfo id="route1_248" depart="423.00" departLane="1-to1_0" departPos="5.10" departSpeed="0.00" departDelay="0.00" arrival="449.00" arrivalLane="1to1+_0" arrivalPos="89.60" arrivalSpeed="15.11" duration="26.00" routeLength="194.90" waitingTime="0.00" waitingCount="0" stopTime="0.00" timeLoss="14.05" rerouteNo="0" devices="tripinfo_route1_248" vType="default_type" speedFactor="1.14" vaporized=""/>
    <tripinfo id="route1_258" depart="432.00" departLane="1-to1_0" departPos="5.10" departSpeed="0.00" departDelay="0.00" arrival="456.00" arrivalLane="1to1+_0" arrivalPos="89.60" arrivalSpeed="15.40" duration="24.00" routeLength="194.90" waitingTime="0.00" waitingCount="0" stopTime="0.00" timeLoss="12.24" rerouteNo="0" devices="tripinfo_route1_258" vType="default_type" speedFactor="1.01" vaporized=""/>
    <tripinfo id="route1_260" depart="437.00" departLane="1-to1_0" departPos="5.10" departSpeed="0.00" departDelay="3.00" arrival="462.00" arrivalLane="1to1+_0" arrivalPos="89.60" arrivalSpeed="15.52" duration="25.00" routeLength="194.90" waitingTime="0.00" waitingCount="0" stopTime="0.00" timeLoss="12.78" rerouteNo="0" devices="tripinfo_route1_260" vType="default_type" speedFactor="0.75" vaporized=""/>
    <tripinfo id="route2_276" depart="463.00" departLane="1+to1_0" departPos="5.10" departSpeed="0.00" departDelay="0.00" arrival="489.00" arrivalLane="1to1-_0" arrivalPos="89.60" arrivalSpeed="15.24" duration="26.00" routeLength="194.90" waitingTime="0.00" waitingCount="0" stopTime="0.00" timeLoss="13.82" rerouteNo="0" devices="tripinfo_route2_276" vType="default_type" speedFactor="0.87" vaporized=""/>
    <tripinfo id="route1_296" depart="505.00" departLane="1-to1_0" departPos="5.10" departSpeed="0.00" departDelay="0.00" arrival="531.00" arrivalLane="1to1+_0" arrivalPos="89.60" arrivalSpeed="15.18" duration="26.00" routeLength="194.90" waitingTime="0.00" waitingCount="0" stopTime="0.00" timeLoss="13.82" rerouteNo="0" devices="tripinfo_route1_296" vType="default_type" speedFactor="1.10" vaporized=""/>
    <tripinfo id="route1_301" depart="511.00" departLane="1-to1_0" departPos="5.10" departSpeed="0.00" departDelay="0.00" arrival="536.00" arrivalLane="1to1+_0" arrivalPos="89.60" arrivalSpeed="15.86" duration="25.00" routeLength="194.90" waitingTime="0.00" waitingCount="0" stopTime="0.00" timeLoss="12.54" rerouteNo="0" devices="tripinfo_route1_301" vType="default_type" speedFactor="0.94" vaporized=""/>
</tripinfos>
